# 55 x 55 Graphene Sheet
8068 atoms
11932 bonds
23524 angles

   2 atom types
   2 bond types
   2 angle types

-50.000  50.000 xlo xhi
-50.000  50.000 ylo yhi
-50.000  50.000 zlo zhi

Masses 

   1  12.011 # C
   2  12.011 # C

Atoms # full

   1    1    1   0.000 -47.198 -41.000   0.000
   2    1    1   0.000 -48.064 -40.500   0.000
   3    1    1   0.000 -48.064 -39.500   0.000
   4    1    1   0.000 -47.198 -39.000   0.000
   5    1    1   0.000 -45.466 -41.000   0.000
   6    1    1   0.000 -46.332 -40.500   0.000
   7    1    1   0.000 -46.332 -39.500   0.000
   8    1    1   0.000 -45.466 -39.000   0.000
   9    1    1   0.000 -43.734 -41.000   0.000
  10    1    1   0.000 -44.600 -40.500   0.000
  11    1    1   0.000 -44.600 -39.500   0.000
  12    1    1   0.000 -43.734 -39.000   0.000
  13    1    1   0.000 -42.002 -41.000   0.000
  14    1    1   0.000 -42.868 -40.500   0.000
  15    1    1   0.000 -42.868 -39.500   0.000
  16    1    1   0.000 -42.002 -39.000   0.000
  17    1    1   0.000 -40.270 -41.000   0.000
  18    1    1   0.000 -41.136 -40.500   0.000
  19    1    1   0.000 -41.136 -39.500   0.000
  20    1    1   0.000 -40.270 -39.000   0.000
  21    1    1   0.000 -38.538 -41.000   0.000
  22    1    1   0.000 -39.404 -40.500   0.000
  23    1    1   0.000 -39.404 -39.500   0.000
  24    1    1   0.000 -38.538 -39.000   0.000
  25    1    1   0.000 -36.806 -41.000   0.000
  26    1    1   0.000 -37.672 -40.500   0.000
  27    1    1   0.000 -37.672 -39.500   0.000
  28    1    1   0.000 -36.806 -39.000   0.000
  29    1    1   0.000 -35.074 -41.000   0.000
  30    1    1   0.000 -35.940 -40.500   0.000
  31    1    1   0.000 -35.940 -39.500   0.000
  32    1    1   0.000 -35.074 -39.000   0.000
  33    1    1   0.000 -33.342 -41.000   0.000
  34    1    1   0.000 -34.208 -40.500   0.000
  35    1    1   0.000 -34.208 -39.500   0.000
  36    1    1   0.000 -33.342 -39.000   0.000
  37    1    1   0.000 -31.610 -41.000   0.000
  38    1    1   0.000 -32.476 -40.500   0.000
  39    1    1   0.000 -32.476 -39.500   0.000
  40    1    1   0.000 -31.610 -39.000   0.000
  41    1    1   0.000 -29.878 -41.000   0.000
  42    1    1   0.000 -30.744 -40.500   0.000
  43    1    1   0.000 -30.744 -39.500   0.000
  44    1    1   0.000 -29.878 -39.000   0.000
  45    1    1   0.000 -28.146 -41.000   0.000
  46    1    1   0.000 -29.012 -40.500   0.000
  47    1    1   0.000 -29.012 -39.500   0.000
  48    1    1   0.000 -28.146 -39.000   0.000
  49    1    1   0.000 -26.414 -41.000   0.000
  50    1    1   0.000 -27.280 -40.500   0.000
  51    1    1   0.000 -27.280 -39.500   0.000
  52    1    1   0.000 -26.414 -39.000   0.000
  53    1    1   0.000 -24.682 -41.000   0.000
  54    1    1   0.000 -25.548 -40.500   0.000
  55    1    1   0.000 -25.548 -39.500   0.000
  56    1    1   0.000 -24.682 -39.000   0.000
  57    1    1   0.000 -22.950 -41.000   0.000
  58    1    1   0.000 -23.816 -40.500   0.000
  59    1    1   0.000 -23.816 -39.500   0.000
  60    1    1   0.000 -22.950 -39.000   0.000
  61    1    1   0.000 -21.218 -41.000   0.000
  62    1    1   0.000 -22.084 -40.500   0.000
  63    1    1   0.000 -22.084 -39.500   0.000
  64    1    1   0.000 -21.218 -39.000   0.000
  65    1    1   0.000 -19.486 -41.000   0.000
  66    1    1   0.000 -20.352 -40.500   0.000
  67    1    1   0.000 -20.352 -39.500   0.000
  68    1    1   0.000 -19.486 -39.000   0.000
  69    1    1   0.000 -17.754 -41.000   0.000
  70    1    1   0.000 -18.620 -40.500   0.000
  71    1    1   0.000 -18.620 -39.500   0.000
  72    1    1   0.000 -17.754 -39.000   0.000
  73    1    1   0.000 -16.021 -41.000   0.000
  74    1    1   0.000 -16.887 -40.500   0.000
  75    1    1   0.000 -16.887 -39.500   0.000
  76    1    1   0.000 -16.021 -39.000   0.000
  77    1    1   0.000 -14.289 -41.000   0.000
  78    1    1   0.000 -15.155 -40.500   0.000
  79    1    1   0.000 -15.155 -39.500   0.000
  80    1    1   0.000 -14.289 -39.000   0.000
  81    1    1   0.000 -12.557 -41.000   0.000
  82    1    1   0.000 -13.423 -40.500   0.000
  83    1    1   0.000 -13.423 -39.500   0.000
  84    1    1   0.000 -12.557 -39.000   0.000
  85    1    1   0.000 -10.825 -41.000   0.000
  86    1    1   0.000 -11.691 -40.500   0.000
  87    1    1   0.000 -11.691 -39.500   0.000
  88    1    1   0.000 -10.825 -39.000   0.000
  89    1    1   0.000  -9.093 -41.000   0.000
  90    1    1   0.000  -9.959 -40.500   0.000
  91    1    1   0.000  -9.959 -39.500   0.000
  92    1    1   0.000  -9.093 -39.000   0.000
  93    1    1   0.000  -7.361 -41.000   0.000
  94    1    1   0.000  -8.227 -40.500   0.000
  95    1    1   0.000  -8.227 -39.500   0.000
  96    1    1   0.000  -7.361 -39.000   0.000
  97    1    1   0.000  -5.629 -41.000   0.000
  98    1    1   0.000  -6.495 -40.500   0.000
  99    1    1   0.000  -6.495 -39.500   0.000
 100    1    1   0.000  -5.629 -39.000   0.000
 101    1    1   0.000  -3.897 -41.000   0.000
 102    1    1   0.000  -4.763 -40.500   0.000
 103    1    1   0.000  -4.763 -39.500   0.000
 104    1    1   0.000  -3.897 -39.000   0.000
 105    1    1   0.000  -2.165 -41.000   0.000
 106    1    1   0.000  -3.031 -40.500   0.000
 107    1    1   0.000  -3.031 -39.500   0.000
 108    1    1   0.000  -2.165 -39.000   0.000
 109    1    1   0.000  -0.433 -41.000   0.000
 110    1    1   0.000  -1.299 -40.500   0.000
 111    1    1   0.000  -1.299 -39.500   0.000
 112    1    1   0.000  -0.433 -39.000   0.000
 113    1    1   0.000   1.299 -41.000   0.000
 114    1    1   0.000   0.433 -40.500   0.000
 115    1    1   0.000   0.433 -39.500   0.000
 116    1    1   0.000   1.299 -39.000   0.000
 117    1    1   0.000   3.031 -41.000   0.000
 118    1    1   0.000   2.165 -40.500   0.000
 119    1    1   0.000   2.165 -39.500   0.000
 120    1    1   0.000   3.031 -39.000   0.000
 121    1    1   0.000   4.763 -41.000   0.000
 122    1    1   0.000   3.897 -40.500   0.000
 123    1    1   0.000   3.897 -39.500   0.000
 124    1    1   0.000   4.763 -39.000   0.000
 125    1    1   0.000   6.495 -41.000   0.000
 126    1    1   0.000   5.629 -40.500   0.000
 127    1    1   0.000   5.629 -39.500   0.000
 128    1    1   0.000   6.495 -39.000   0.000
 129    1    1   0.000   8.227 -41.000   0.000
 130    1    1   0.000   7.361 -40.500   0.000
 131    1    1   0.000   7.361 -39.500   0.000
 132    1    1   0.000   8.227 -39.000   0.000
 133    1    1   0.000   9.959 -41.000   0.000
 134    1    1   0.000   9.093 -40.500   0.000
 135    1    1   0.000   9.093 -39.500   0.000
 136    1    1   0.000   9.959 -39.000   0.000
 137    1    1   0.000  11.691 -41.000   0.000
 138    1    1   0.000  10.825 -40.500   0.000
 139    1    1   0.000  10.825 -39.500   0.000
 140    1    1   0.000  11.691 -39.000   0.000
 141    1    1   0.000  13.423 -41.000   0.000
 142    1    1   0.000  12.557 -40.500   0.000
 143    1    1   0.000  12.557 -39.500   0.000
 144    1    1   0.000  13.423 -39.000   0.000
 145    1    1   0.000  15.155 -41.000   0.000
 146    1    1   0.000  14.289 -40.500   0.000
 147    1    1   0.000  14.289 -39.500   0.000
 148    1    1   0.000  15.155 -39.000   0.000
 149    1    1   0.000  16.887 -41.000   0.000
 150    1    1   0.000  16.021 -40.500   0.000
 151    1    1   0.000  16.021 -39.500   0.000
 152    1    1   0.000  16.887 -39.000   0.000
 153    1    1   0.000  18.620 -41.000   0.000
 154    1    1   0.000  17.754 -40.500   0.000
 155    1    1   0.000  17.754 -39.500   0.000
 156    1    1   0.000  18.620 -39.000   0.000
 157    1    1   0.000  20.352 -41.000   0.000
 158    1    1   0.000  19.486 -40.500   0.000
 159    1    1   0.000  19.486 -39.500   0.000
 160    1    1   0.000  20.352 -39.000   0.000
 161    1    1   0.000  22.084 -41.000   0.000
 162    1    1   0.000  21.218 -40.500   0.000
 163    1    1   0.000  21.218 -39.500   0.000
 164    1    1   0.000  22.084 -39.000   0.000
 165    1    1   0.000  23.816 -41.000   0.000
 166    1    1   0.000  22.950 -40.500   0.000
 167    1    1   0.000  22.950 -39.500   0.000
 168    1    1   0.000  23.816 -39.000   0.000
 169    1    1   0.000  25.548 -41.000   0.000
 170    1    1   0.000  24.682 -40.500   0.000
 171    1    1   0.000  24.682 -39.500   0.000
 172    1    1   0.000  25.548 -39.000   0.000
 173    1    1   0.000  27.280 -41.000   0.000
 174    1    1   0.000  26.414 -40.500   0.000
 175    1    1   0.000  26.414 -39.500   0.000
 176    1    1   0.000  27.280 -39.000   0.000
 177    1    1   0.000  29.012 -41.000   0.000
 178    1    1   0.000  28.146 -40.500   0.000
 179    1    1   0.000  28.146 -39.500   0.000
 180    1    1   0.000  29.012 -39.000   0.000
 181    1    1   0.000  30.744 -41.000   0.000
 182    1    1   0.000  29.878 -40.500   0.000
 183    1    1   0.000  29.878 -39.500   0.000
 184    1    1   0.000  30.744 -39.000   0.000
 185    1    1   0.000  32.476 -41.000   0.000
 186    1    1   0.000  31.610 -40.500   0.000
 187    1    1   0.000  31.610 -39.500   0.000
 188    1    1   0.000  32.476 -39.000   0.000
 189    1    1   0.000  34.208 -41.000   0.000
 190    1    1   0.000  33.342 -40.500   0.000
 191    1    1   0.000  33.342 -39.500   0.000
 192    1    1   0.000  34.208 -39.000   0.000
 193    1    1   0.000  35.940 -41.000   0.000
 194    1    1   0.000  35.074 -40.500   0.000
 195    1    1   0.000  35.074 -39.500   0.000
 196    1    1   0.000  35.940 -39.000   0.000
 197    1    1   0.000  37.672 -41.000   0.000
 198    1    1   0.000  36.806 -40.500   0.000
 199    1    1   0.000  36.806 -39.500   0.000
 200    1    1   0.000  37.672 -39.000   0.000
 201    1    1   0.000  39.404 -41.000   0.000
 202    1    1   0.000  38.538 -40.500   0.000
 203    1    1   0.000  38.538 -39.500   0.000
 204    1    1   0.000  39.404 -39.000   0.000
 205    1    1   0.000  41.136 -41.000   0.000
 206    1    1   0.000  40.270 -40.500   0.000
 207    1    1   0.000  40.270 -39.500   0.000
 208    1    1   0.000  41.136 -39.000   0.000
 209    1    1   0.000  42.868 -41.000   0.000
 210    1    1   0.000  42.002 -40.500   0.000
 211    1    1   0.000  42.002 -39.500   0.000
 212    1    1   0.000  42.868 -39.000   0.000
 213    1    1   0.000  44.600 -41.000   0.000
 214    1    1   0.000  43.734 -40.500   0.000
 215    1    1   0.000  43.734 -39.500   0.000
 216    1    1   0.000  44.600 -39.000   0.000
 217    1    1   0.000  46.332 -41.000   0.000
 218    1    1   0.000  45.466 -40.500   0.000
 219    1    1   0.000  45.466 -39.500   0.000
 220    1    1   0.000  46.332 -39.000   0.000
 221    1    1   0.000  47.198 -40.500   0.000
 222    1    1   0.000  47.198 -39.500   0.000
 223    1    1   0.000  48.064 -39.000   0.000
 224    1    1   0.000 -47.198 -38.000   0.000
 225    1    1   0.000 -48.064 -37.500   0.000
 226    1    1   0.000 -48.064 -36.500   0.000
 227    1    1   0.000 -47.198 -36.000   0.000
 228    1    1   0.000 -45.466 -38.000   0.000
 229    1    1   0.000 -46.332 -37.500   0.000
 230    1    1   0.000 -46.332 -36.500   0.000
 231    1    1   0.000 -45.466 -36.000   0.000
 232    1    1   0.000 -43.734 -38.000   0.000
 233    1    1   0.000 -44.600 -37.500   0.000
 234    1    1   0.000 -44.600 -36.500   0.000
 235    1    1   0.000 -43.734 -36.000   0.000
 236    1    1   0.000 -42.002 -38.000   0.000
 237    1    1   0.000 -42.868 -37.500   0.000
 238    1    1   0.000 -42.868 -36.500   0.000
 239    1    1   0.000 -42.002 -36.000   0.000
 240    1    1   0.000 -40.270 -38.000   0.000
 241    1    1   0.000 -41.136 -37.500   0.000
 242    1    1   0.000 -41.136 -36.500   0.000
 243    1    1   0.000 -40.270 -36.000   0.000
 244    1    1   0.000 -38.538 -38.000   0.000
 245    1    1   0.000 -39.404 -37.500   0.000
 246    1    1   0.000 -39.404 -36.500   0.000
 247    1    1   0.000 -38.538 -36.000   0.000
 248    1    1   0.000 -36.806 -38.000   0.000
 249    1    1   0.000 -37.672 -37.500   0.000
 250    1    1   0.000 -37.672 -36.500   0.000
 251    1    1   0.000 -36.806 -36.000   0.000
 252    1    1   0.000 -35.074 -38.000   0.000
 253    1    1   0.000 -35.940 -37.500   0.000
 254    1    1   0.000 -35.940 -36.500   0.000
 255    1    1   0.000 -35.074 -36.000   0.000
 256    1    1   0.000 -33.342 -38.000   0.000
 257    1    1   0.000 -34.208 -37.500   0.000
 258    1    1   0.000 -34.208 -36.500   0.000
 259    1    1   0.000 -33.342 -36.000   0.000
 260    1    1   0.000 -31.610 -38.000   0.000
 261    1    1   0.000 -32.476 -37.500   0.000
 262    1    1   0.000 -32.476 -36.500   0.000
 263    1    1   0.000 -31.610 -36.000   0.000
 264    1    1   0.000 -29.878 -38.000   0.000
 265    1    1   0.000 -30.744 -37.500   0.000
 266    1    1   0.000 -30.744 -36.500   0.000
 267    1    1   0.000 -29.878 -36.000   0.000
 268    1    1   0.000 -28.146 -38.000   0.000
 269    1    1   0.000 -29.012 -37.500   0.000
 270    1    1   0.000 -29.012 -36.500   0.000
 271    1    1   0.000 -28.146 -36.000   0.000
 272    1    1   0.000 -26.414 -38.000   0.000
 273    1    1   0.000 -27.280 -37.500   0.000
 274    1    1   0.000 -27.280 -36.500   0.000
 275    1    1   0.000 -26.414 -36.000   0.000
 276    1    1   0.000 -24.682 -38.000   0.000
 277    1    1   0.000 -25.548 -37.500   0.000
 278    1    1   0.000 -25.548 -36.500   0.000
 279    1    1   0.000 -24.682 -36.000   0.000
 280    1    1   0.000 -22.950 -38.000   0.000
 281    1    1   0.000 -23.816 -37.500   0.000
 282    1    1   0.000 -23.816 -36.500   0.000
 283    1    1   0.000 -22.950 -36.000   0.000
 284    1    1   0.000 -21.218 -38.000   0.000
 285    1    1   0.000 -22.084 -37.500   0.000
 286    1    1   0.000 -22.084 -36.500   0.000
 287    1    1   0.000 -21.218 -36.000   0.000
 288    1    1   0.000 -19.486 -38.000   0.000
 289    1    1   0.000 -20.352 -37.500   0.000
 290    1    1   0.000 -20.352 -36.500   0.000
 291    1    1   0.000 -19.486 -36.000   0.000
 292    1    1   0.000 -17.754 -38.000   0.000
 293    1    1   0.000 -18.620 -37.500   0.000
 294    1    1   0.000 -18.620 -36.500   0.000
 295    1    1   0.000 -17.754 -36.000   0.000
 296    1    1   0.000 -16.021 -38.000   0.000
 297    1    1   0.000 -16.887 -37.500   0.000
 298    1    1   0.000 -16.887 -36.500   0.000
 299    1    1   0.000 -16.021 -36.000   0.000
 300    1    1   0.000 -14.289 -38.000   0.000
 301    1    1   0.000 -15.155 -37.500   0.000
 302    1    1   0.000 -15.155 -36.500   0.000
 303    1    1   0.000 -14.289 -36.000   0.000
 304    1    1   0.000 -12.557 -38.000   0.000
 305    1    1   0.000 -13.423 -37.500   0.000
 306    1    1   0.000 -13.423 -36.500   0.000
 307    1    1   0.000 -12.557 -36.000   0.000
 308    1    1   0.000 -10.825 -38.000   0.000
 309    1    1   0.000 -11.691 -37.500   0.000
 310    1    1   0.000 -11.691 -36.500   0.000
 311    1    1   0.000 -10.825 -36.000   0.000
 312    1    1   0.000  -9.093 -38.000   0.000
 313    1    1   0.000  -9.959 -37.500   0.000
 314    1    1   0.000  -9.959 -36.500   0.000
 315    1    1   0.000  -9.093 -36.000   0.000
 316    1    1   0.000  -7.361 -38.000   0.000
 317    1    1   0.000  -8.227 -37.500   0.000
 318    1    1   0.000  -8.227 -36.500   0.000
 319    1    1   0.000  -7.361 -36.000   0.000
 320    1    1   0.000  -5.629 -38.000   0.000
 321    1    1   0.000  -6.495 -37.500   0.000
 322    1    1   0.000  -6.495 -36.500   0.000
 323    1    1   0.000  -5.629 -36.000   0.000
 324    1    1   0.000  -3.897 -38.000   0.000
 325    1    1   0.000  -4.763 -37.500   0.000
 326    1    1   0.000  -4.763 -36.500   0.000
 327    1    1   0.000  -3.897 -36.000   0.000
 328    1    1   0.000  -2.165 -38.000   0.000
 329    1    1   0.000  -3.031 -37.500   0.000
 330    1    1   0.000  -3.031 -36.500   0.000
 331    1    1   0.000  -2.165 -36.000   0.000
 332    1    1   0.000  -0.433 -38.000   0.000
 333    1    1   0.000  -1.299 -37.500   0.000
 334    1    1   0.000  -1.299 -36.500   0.000
 335    1    1   0.000  -0.433 -36.000   0.000
 336    1    1   0.000   1.299 -38.000   0.000
 337    1    1   0.000   0.433 -37.500   0.000
 338    1    1   0.000   0.433 -36.500   0.000
 339    1    1   0.000   1.299 -36.000   0.000
 340    1    1   0.000   3.031 -38.000   0.000
 341    1    1   0.000   2.165 -37.500   0.000
 342    1    1   0.000   2.165 -36.500   0.000
 343    1    1   0.000   3.031 -36.000   0.000
 344    1    1   0.000   4.763 -38.000   0.000
 345    1    1   0.000   3.897 -37.500   0.000
 346    1    1   0.000   3.897 -36.500   0.000
 347    1    1   0.000   4.763 -36.000   0.000
 348    1    1   0.000   6.495 -38.000   0.000
 349    1    1   0.000   5.629 -37.500   0.000
 350    1    1   0.000   5.629 -36.500   0.000
 351    1    1   0.000   6.495 -36.000   0.000
 352    1    1   0.000   8.227 -38.000   0.000
 353    1    1   0.000   7.361 -37.500   0.000
 354    1    1   0.000   7.361 -36.500   0.000
 355    1    1   0.000   8.227 -36.000   0.000
 356    1    1   0.000   9.959 -38.000   0.000
 357    1    1   0.000   9.093 -37.500   0.000
 358    1    1   0.000   9.093 -36.500   0.000
 359    1    1   0.000   9.959 -36.000   0.000
 360    1    1   0.000  11.691 -38.000   0.000
 361    1    1   0.000  10.825 -37.500   0.000
 362    1    1   0.000  10.825 -36.500   0.000
 363    1    1   0.000  11.691 -36.000   0.000
 364    1    1   0.000  13.423 -38.000   0.000
 365    1    1   0.000  12.557 -37.500   0.000
 366    1    1   0.000  12.557 -36.500   0.000
 367    1    1   0.000  13.423 -36.000   0.000
 368    1    1   0.000  15.155 -38.000   0.000
 369    1    1   0.000  14.289 -37.500   0.000
 370    1    1   0.000  14.289 -36.500   0.000
 371    1    1   0.000  15.155 -36.000   0.000
 372    1    1   0.000  16.887 -38.000   0.000
 373    1    1   0.000  16.021 -37.500   0.000
 374    1    1   0.000  16.021 -36.500   0.000
 375    1    1   0.000  16.887 -36.000   0.000
 376    1    1   0.000  18.620 -38.000   0.000
 377    1    1   0.000  17.754 -37.500   0.000
 378    1    1   0.000  17.754 -36.500   0.000
 379    1    1   0.000  18.620 -36.000   0.000
 380    1    1   0.000  20.352 -38.000   0.000
 381    1    1   0.000  19.486 -37.500   0.000
 382    1    1   0.000  19.486 -36.500   0.000
 383    1    1   0.000  20.352 -36.000   0.000
 384    1    1   0.000  22.084 -38.000   0.000
 385    1    1   0.000  21.218 -37.500   0.000
 386    1    1   0.000  21.218 -36.500   0.000
 387    1    1   0.000  22.084 -36.000   0.000
 388    1    1   0.000  23.816 -38.000   0.000
 389    1    1   0.000  22.950 -37.500   0.000
 390    1    1   0.000  22.950 -36.500   0.000
 391    1    1   0.000  23.816 -36.000   0.000
 392    1    1   0.000  25.548 -38.000   0.000
 393    1    1   0.000  24.682 -37.500   0.000
 394    1    1   0.000  24.682 -36.500   0.000
 395    1    1   0.000  25.548 -36.000   0.000
 396    1    1   0.000  27.280 -38.000   0.000
 397    1    1   0.000  26.414 -37.500   0.000
 398    1    1   0.000  26.414 -36.500   0.000
 399    1    1   0.000  27.280 -36.000   0.000
 400    1    1   0.000  29.012 -38.000   0.000
 401    1    1   0.000  28.146 -37.500   0.000
 402    1    1   0.000  28.146 -36.500   0.000
 403    1    1   0.000  29.012 -36.000   0.000
 404    1    1   0.000  30.744 -38.000   0.000
 405    1    1   0.000  29.878 -37.500   0.000
 406    1    1   0.000  29.878 -36.500   0.000
 407    1    1   0.000  30.744 -36.000   0.000
 408    1    1   0.000  32.476 -38.000   0.000
 409    1    1   0.000  31.610 -37.500   0.000
 410    1    1   0.000  31.610 -36.500   0.000
 411    1    1   0.000  32.476 -36.000   0.000
 412    1    1   0.000  34.208 -38.000   0.000
 413    1    1   0.000  33.342 -37.500   0.000
 414    1    1   0.000  33.342 -36.500   0.000
 415    1    1   0.000  34.208 -36.000   0.000
 416    1    1   0.000  35.940 -38.000   0.000
 417    1    1   0.000  35.074 -37.500   0.000
 418    1    1   0.000  35.074 -36.500   0.000
 419    1    1   0.000  35.940 -36.000   0.000
 420    1    1   0.000  37.672 -38.000   0.000
 421    1    1   0.000  36.806 -37.500   0.000
 422    1    1   0.000  36.806 -36.500   0.000
 423    1    1   0.000  37.672 -36.000   0.000
 424    1    1   0.000  39.404 -38.000   0.000
 425    1    1   0.000  38.538 -37.500   0.000
 426    1    1   0.000  38.538 -36.500   0.000
 427    1    1   0.000  39.404 -36.000   0.000
 428    1    1   0.000  41.136 -38.000   0.000
 429    1    1   0.000  40.270 -37.500   0.000
 430    1    1   0.000  40.270 -36.500   0.000
 431    1    1   0.000  41.136 -36.000   0.000
 432    1    1   0.000  42.868 -38.000   0.000
 433    1    1   0.000  42.002 -37.500   0.000
 434    1    1   0.000  42.002 -36.500   0.000
 435    1    1   0.000  42.868 -36.000   0.000
 436    1    1   0.000  44.600 -38.000   0.000
 437    1    1   0.000  43.734 -37.500   0.000
 438    1    1   0.000  43.734 -36.500   0.000
 439    1    1   0.000  44.600 -36.000   0.000
 440    1    1   0.000  46.332 -38.000   0.000
 441    1    1   0.000  45.466 -37.500   0.000
 442    1    1   0.000  45.466 -36.500   0.000
 443    1    1   0.000  46.332 -36.000   0.000
 444    1    1   0.000  48.064 -38.000   0.000
 445    1    1   0.000  47.198 -37.500   0.000
 446    1    1   0.000  47.198 -36.500   0.000
 447    1    1   0.000  48.064 -36.000   0.000
 448    1    1   0.000 -47.198 -35.000   0.000
 449    1    1   0.000 -48.064 -34.500   0.000
 450    1    1   0.000 -48.064 -33.500   0.000
 451    1    1   0.000 -47.198 -33.000   0.000
 452    1    1   0.000 -45.466 -35.000   0.000
 453    1    1   0.000 -46.332 -34.500   0.000
 454    1    1   0.000 -46.332 -33.500   0.000
 455    1    1   0.000 -45.466 -33.000   0.000
 456    1    1   0.000 -43.734 -35.000   0.000
 457    1    1   0.000 -44.600 -34.500   0.000
 458    1    1   0.000 -44.600 -33.500   0.000
 459    1    1   0.000 -43.734 -33.000   0.000
 460    1    1   0.000 -42.002 -35.000   0.000
 461    1    1   0.000 -42.868 -34.500   0.000
 462    1    1   0.000 -42.868 -33.500   0.000
 463    1    1   0.000 -42.002 -33.000   0.000
 464    1    1   0.000 -40.270 -35.000   0.000
 465    1    1   0.000 -41.136 -34.500   0.000
 466    1    1   0.000 -41.136 -33.500   0.000
 467    1    1   0.000 -40.270 -33.000   0.000
 468    1    1   0.000 -38.538 -35.000   0.000
 469    1    1   0.000 -39.404 -34.500   0.000
 470    1    1   0.000 -39.404 -33.500   0.000
 471    1    1   0.000 -38.538 -33.000   0.000
 472    1    1   0.000 -36.806 -35.000   0.000
 473    1    1   0.000 -37.672 -34.500   0.000
 474    1    1   0.000 -37.672 -33.500   0.000
 475    1    1   0.000 -36.806 -33.000   0.000
 476    1    1   0.000 -35.074 -35.000   0.000
 477    1    1   0.000 -35.940 -34.500   0.000
 478    1    1   0.000 -35.940 -33.500   0.000
 479    1    1   0.000 -35.074 -33.000   0.000
 480    1    1   0.000 -33.342 -35.000   0.000
 481    1    1   0.000 -34.208 -34.500   0.000
 482    1    1   0.000 -34.208 -33.500   0.000
 483    1    1   0.000 -33.342 -33.000   0.000
 484    1    1   0.000 -31.610 -35.000   0.000
 485    1    1   0.000 -32.476 -34.500   0.000
 486    1    1   0.000 -32.476 -33.500   0.000
 487    1    1   0.000 -31.610 -33.000   0.000
 488    1    1   0.000 -29.878 -35.000   0.000
 489    1    1   0.000 -30.744 -34.500   0.000
 490    1    1   0.000 -30.744 -33.500   0.000
 491    1    1   0.000 -29.878 -33.000   0.000
 492    1    1   0.000 -28.146 -35.000   0.000
 493    1    1   0.000 -29.012 -34.500   0.000
 494    1    1   0.000 -29.012 -33.500   0.000
 495    1    1   0.000 -28.146 -33.000   0.000
 496    1    1   0.000 -26.414 -35.000   0.000
 497    1    1   0.000 -27.280 -34.500   0.000
 498    1    1   0.000 -27.280 -33.500   0.000
 499    1    1   0.000 -26.414 -33.000   0.000
 500    1    1   0.000 -24.682 -35.000   0.000
 501    1    1   0.000 -25.548 -34.500   0.000
 502    1    1   0.000 -25.548 -33.500   0.000
 503    1    1   0.000 -24.682 -33.000   0.000
 504    1    1   0.000 -22.950 -35.000   0.000
 505    1    1   0.000 -23.816 -34.500   0.000
 506    1    1   0.000 -23.816 -33.500   0.000
 507    1    1   0.000 -22.950 -33.000   0.000
 508    1    1   0.000 -21.218 -35.000   0.000
 509    1    1   0.000 -22.084 -34.500   0.000
 510    1    1   0.000 -22.084 -33.500   0.000
 511    1    1   0.000 -21.218 -33.000   0.000
 512    1    1   0.000 -19.486 -35.000   0.000
 513    1    1   0.000 -20.352 -34.500   0.000
 514    1    1   0.000 -20.352 -33.500   0.000
 515    1    1   0.000 -19.486 -33.000   0.000
 516    1    1   0.000 -17.754 -35.000   0.000
 517    1    1   0.000 -18.620 -34.500   0.000
 518    1    1   0.000 -18.620 -33.500   0.000
 519    1    1   0.000 -17.754 -33.000   0.000
 520    1    1   0.000 -16.021 -35.000   0.000
 521    1    1   0.000 -16.887 -34.500   0.000
 522    1    1   0.000 -16.887 -33.500   0.000
 523    1    1   0.000 -16.021 -33.000   0.000
 524    1    1   0.000 -14.289 -35.000   0.000
 525    1    1   0.000 -15.155 -34.500   0.000
 526    1    1   0.000 -15.155 -33.500   0.000
 527    1    1   0.000 -14.289 -33.000   0.000
 528    1    1   0.000 -12.557 -35.000   0.000
 529    1    1   0.000 -13.423 -34.500   0.000
 530    1    1   0.000 -13.423 -33.500   0.000
 531    1    1   0.000 -12.557 -33.000   0.000
 532    1    1   0.000 -10.825 -35.000   0.000
 533    1    1   0.000 -11.691 -34.500   0.000
 534    1    1   0.000 -11.691 -33.500   0.000
 535    1    1   0.000 -10.825 -33.000   0.000
 536    1    1   0.000  -9.093 -35.000   0.000
 537    1    1   0.000  -9.959 -34.500   0.000
 538    1    1   0.000  -9.959 -33.500   0.000
 539    1    1   0.000  -9.093 -33.000   0.000
 540    1    1   0.000  -7.361 -35.000   0.000
 541    1    1   0.000  -8.227 -34.500   0.000
 542    1    1   0.000  -8.227 -33.500   0.000
 543    1    1   0.000  -7.361 -33.000   0.000
 544    1    1   0.000  -5.629 -35.000   0.000
 545    1    1   0.000  -6.495 -34.500   0.000
 546    1    1   0.000  -6.495 -33.500   0.000
 547    1    1   0.000  -5.629 -33.000   0.000
 548    1    1   0.000  -3.897 -35.000   0.000
 549    1    1   0.000  -4.763 -34.500   0.000
 550    1    1   0.000  -4.763 -33.500   0.000
 551    1    1   0.000  -3.897 -33.000   0.000
 552    1    1   0.000  -2.165 -35.000   0.000
 553    1    1   0.000  -3.031 -34.500   0.000
 554    1    1   0.000  -3.031 -33.500   0.000
 555    1    1   0.000  -2.165 -33.000   0.000
 556    1    1   0.000  -0.433 -35.000   0.000
 557    1    1   0.000  -1.299 -34.500   0.000
 558    1    1   0.000  -1.299 -33.500   0.000
 559    1    1   0.000  -0.433 -33.000   0.000
 560    1    1   0.000   1.299 -35.000   0.000
 561    1    1   0.000   0.433 -34.500   0.000
 562    1    1   0.000   0.433 -33.500   0.000
 563    1    1   0.000   1.299 -33.000   0.000
 564    1    1   0.000   3.031 -35.000   0.000
 565    1    1   0.000   2.165 -34.500   0.000
 566    1    1   0.000   2.165 -33.500   0.000
 567    1    1   0.000   3.031 -33.000   0.000
 568    1    1   0.000   4.763 -35.000   0.000
 569    1    1   0.000   3.897 -34.500   0.000
 570    1    1   0.000   3.897 -33.500   0.000
 571    1    1   0.000   4.763 -33.000   0.000
 572    1    1   0.000   6.495 -35.000   0.000
 573    1    1   0.000   5.629 -34.500   0.000
 574    1    1   0.000   5.629 -33.500   0.000
 575    1    1   0.000   6.495 -33.000   0.000
 576    1    1   0.000   8.227 -35.000   0.000
 577    1    1   0.000   7.361 -34.500   0.000
 578    1    1   0.000   7.361 -33.500   0.000
 579    1    1   0.000   8.227 -33.000   0.000
 580    1    1   0.000   9.959 -35.000   0.000
 581    1    1   0.000   9.093 -34.500   0.000
 582    1    1   0.000   9.093 -33.500   0.000
 583    1    1   0.000   9.959 -33.000   0.000
 584    1    1   0.000  11.691 -35.000   0.000
 585    1    1   0.000  10.825 -34.500   0.000
 586    1    1   0.000  10.825 -33.500   0.000
 587    1    1   0.000  11.691 -33.000   0.000
 588    1    1   0.000  13.423 -35.000   0.000
 589    1    1   0.000  12.557 -34.500   0.000
 590    1    1   0.000  12.557 -33.500   0.000
 591    1    1   0.000  13.423 -33.000   0.000
 592    1    1   0.000  15.155 -35.000   0.000
 593    1    1   0.000  14.289 -34.500   0.000
 594    1    1   0.000  14.289 -33.500   0.000
 595    1    1   0.000  15.155 -33.000   0.000
 596    1    1   0.000  16.887 -35.000   0.000
 597    1    1   0.000  16.021 -34.500   0.000
 598    1    1   0.000  16.021 -33.500   0.000
 599    1    1   0.000  16.887 -33.000   0.000
 600    1    1   0.000  18.620 -35.000   0.000
 601    1    1   0.000  17.754 -34.500   0.000
 602    1    1   0.000  17.754 -33.500   0.000
 603    1    1   0.000  18.620 -33.000   0.000
 604    1    1   0.000  20.352 -35.000   0.000
 605    1    1   0.000  19.486 -34.500   0.000
 606    1    1   0.000  19.486 -33.500   0.000
 607    1    1   0.000  20.352 -33.000   0.000
 608    1    1   0.000  22.084 -35.000   0.000
 609    1    1   0.000  21.218 -34.500   0.000
 610    1    1   0.000  21.218 -33.500   0.000
 611    1    1   0.000  22.084 -33.000   0.000
 612    1    1   0.000  23.816 -35.000   0.000
 613    1    1   0.000  22.950 -34.500   0.000
 614    1    1   0.000  22.950 -33.500   0.000
 615    1    1   0.000  23.816 -33.000   0.000
 616    1    1   0.000  25.548 -35.000   0.000
 617    1    1   0.000  24.682 -34.500   0.000
 618    1    1   0.000  24.682 -33.500   0.000
 619    1    1   0.000  25.548 -33.000   0.000
 620    1    1   0.000  27.280 -35.000   0.000
 621    1    1   0.000  26.414 -34.500   0.000
 622    1    1   0.000  26.414 -33.500   0.000
 623    1    1   0.000  27.280 -33.000   0.000
 624    1    1   0.000  29.012 -35.000   0.000
 625    1    1   0.000  28.146 -34.500   0.000
 626    1    1   0.000  28.146 -33.500   0.000
 627    1    1   0.000  29.012 -33.000   0.000
 628    1    1   0.000  30.744 -35.000   0.000
 629    1    1   0.000  29.878 -34.500   0.000
 630    1    1   0.000  29.878 -33.500   0.000
 631    1    1   0.000  30.744 -33.000   0.000
 632    1    1   0.000  32.476 -35.000   0.000
 633    1    1   0.000  31.610 -34.500   0.000